(written by ASE)

2 atoms
2 atom types

0.0      3.1499999999999999  xlo xhi
0.0      3.1499999999999999  ylo yhi
0.0      3.1499999999999999  zlo zhi

Atoms # atomic

     1   1    0.014901424590336977  -0.0041479290351355384     0.01943065614302077
     2   1      1.6206908956922406      1.5679753987582996      1.5679758912915243
