(written by ASE)

4 atoms
1 atom types

0.0      5.7997313345996311  xlo xhi
0.0      5.7997313345996311  ylo yhi
0.0      3.1122846351559841  zlo zhi

Atoms # atomic

     1   1                       0                       0                       0
     2   1      2.8998656672998155  1.3415641413374331e-17     0.77807115878899602
     3   1      2.8998656672998155      2.8998656672998155       1.556142317577992
     4   1                       0      2.8998656672998155      2.3342134763669882
