(written by ASE)

8 atoms
2 atom types

0.0      4.2016817900000003  xlo xhi
0.0      4.4277414799999999  ylo yhi
0.0      4.9704697800000002  zlo zhi

Atoms # atomic

     1   2      2.0917606542447884     0.69133488849972613      3.7498330087288374
     2   2  -0.0022577630048653445      3.7229588365338011      3.7062806670982442
     3   2      2.0953970677547482      2.9512767565990594   -0.011509935774223028
     4   2   0.0037569801834567967      1.4715675623988473      2.4823179525020671
     5   2   -0.006017066122294132      3.7408063363320108      1.2498066587922418
     6   2      2.0902637857104414      0.7136833746341108      1.2230848224606687
     7   1      2.1029295309500475      2.8781040854088289      2.4719530295110159
     8   1   0.0019686123586911317      1.5374253591523233   0.0017136828118997044
