ITEM: TIMESTEP
3
ITEM: NUMBER OF ATOMS
2
ITEM: BOX BOUNDS xy xz yz pp pp pp
5.2251300885147274e-05 3.1718912667720889e+00 3.1718072973982302e-05
5.2251300885132163e-05 3.1718595486991150e+00 0.0000000000000000e+00
5.2251300885137828e-05 3.1718595486991150e+00 0.0000000000000000e+00
ITEM: ATOMS id type x y z
1 1 3.17186 5.22561e-05 3.17186
2 1 1.58597 1.58596 1.58596
