LAMMPS (2 Aug 2023)
  using 6 OpenMP thread(s) per MPI task
units               metal
boundary            p p p
atom_style          atomic

read_data           ../Mo8_Ni8_id3210.data
Reading data file ...
  triclinic box = (0 0 0) to (6.2602122 6.1527947 5.5606784) with tilt (0.28813996 0.0076571038 -0.086881948)
  1 by 1 by 1 MPI processor grid
  reading atoms ...
  16 atoms
  read_data CPU = 0.012 seconds
replicate           10 10 10
Replication is creating a 10x10x10 = 1000 times larger system...
  triclinic box = (0 0 0) to (62.602122 61.527947 55.606784) with tilt (2.8813996 0.076571038 -0.86881948)
  1 by 1 by 1 MPI processor grid
  16000 atoms
  replicate CPU = 0.002 seconds

pair_style          tensormd
pair_coeff          * * MoNi_m3.npz Mo Ni interp 0.0001
Read potential file: MoNi_m3.npz
Use 1 GPU(s) per node
Use interpolation: dr = 0.0001

thermo              1
thermo_style        custom step temp ke pe press pxx pyy pzz
timestep            0.001

neighbor            1.0 bin
neigh_modify        every 1 delay 0 check yes

# min_style           cg
# minimize            1e-6 1e-6 1000 10000
# reset_timestep      0

velocity            all create 100.0 56789
fix                 1 all nvt temp 100.0 100.0 $(100*dt)
fix                 1 all nvt temp 100.0 100.0 0.10000000000000000555

run                 100
Neighbor list info ...
  update: every = 1 steps, delay = 0 steps, check = yes
  max neighbors/atom: 2000, page size: 100000
  master list distance cutoff = 7
  ghost atom cutoff = 7
  binsize = 3.5, bins = 19 18 16
  1 neighbor lists, perpetual/occasional/extra = 1 0 0
  (1) pair tensormd, perpetual
      attributes: full, newton on
      pair build: full/bin/atomonly
      stencil: full/bin/3d
      bin: standard
Per MPI rank memory allocation (min/avg/max) = 19.39 | 19.39 | 19.39 Mbytes
   Step          Temp          KinEng         PotEng         Press           Pxx            Pyy            Pzz      
         0   100            206.80331     -131381.15      15767.898      16651.864      14577.416      16074.413    
         1   99.99422       206.79135     -131381.14      15768.162      16652.26       14577.395      16074.831    
         2   99.97072       206.74275     -131381.09      15770.356      16654.559      14579.35       16077.157    
         3   99.929504      206.65752     -131381.01      15774.35       16658.74       14583.088      16081.221    
         4   99.870591      206.53568     -131380.89      15780.21       16664.81       14588.711      16087.11     
         5   99.794014      206.37732     -131380.73      15787.992      16672.773      14596.304      16094.899    
         6   99.699819      206.18252     -131380.53      15797.712      16682.632      14605.894      16104.61     
         7   99.588066      205.95141     -131380.3       15809.376      16694.39       14617.475      16116.262    
         8   99.458821      205.68413     -131380.03      15823.002      16708.054      14631.058      16129.894    
         9   99.312163      205.38084     -131379.73      15838.577      16723.621      14646.626      16145.482    
        10   99.148182      205.04172     -131379.39      15856.116      16741.097      14664.188      16163.063    
        11   98.966975      204.66698     -131379.01      15875.646      16760.495      14683.747      16182.697    
        12   98.768653      204.25684     -131378.6       15897.137      16781.801      14705.298      16204.313    
        13   98.553336      203.81156     -131378.15      15920.573      16804.999      14728.844      16227.875    
        14   98.321155      203.3314      -131377.67      15945.941      16830.084      14754.379      16253.36     
        15   98.072254      202.81666     -131377.15      15973.229      16857.047      14781.888      16280.753    
        16   97.806785      202.26766     -131376.6       16002.441      16885.887      14811.377      16310.061    
        17   97.524908      201.68473     -131376.01      16033.564      16916.599      14842.835      16341.257    
        18   97.226796      201.06823     -131375.39      16066.58       16949.168      14876.255      16374.319    
        19   96.912628      200.41852     -131374.73      16101.491      16983.596      14911.64       16409.236    
        20   96.582592      199.73599     -131374.04      16138.284      17019.879      14948.99       16445.984    
        21   96.236889      199.02107     -131373.32      16176.966      17058.016      14988.316      16484.568    
        22   95.875724      198.27417     -131372.56      16217.528      17098.005      15029.613      16524.967    
        23   95.499315      197.49574     -131371.77      16259.982      17139.858      15072.884      16567.205    
        24   95.107885      196.68625     -131370.94      16304.329      17183.581      15118.133      16611.274    
        25   94.701669      195.84618     -131370.09      16350.568      17229.165      15165.37       16657.168    
        26   94.280907      194.97603     -131369.2       16398.709      17276.627      15214.591      16704.911    
        27   93.845847      194.07631     -131368.28      16448.752      17325.966      15265.805      16754.483    
        28   93.396746      193.14756     -131367.32      16500.696      17377.184      15319.019      16805.884    
        29   92.933868      192.19031     -131366.34      16554.555      17430.295      15374.252      16859.117    
        30   92.457484      191.20513     -131365.33      16610.336      17485.299      15431.508      16914.201    
        31   91.96787       190.1926      -131364.28      16668.052      17542.225      15490.797      16971.134    
        32   91.465309      189.15328     -131363.21      16727.704      17601.082      15552.12       17029.911    
        33   90.950089      188.08779     -131362.11      16789.294      17661.876      15615.488      17090.516    
        34   90.422504      186.99673     -131360.98      16852.847      17724.624      15680.927      17152.989    
        35   89.882852      185.88071     -131359.82      16918.391      17789.334      15748.47       17217.37     
        36   89.331431      184.74035     -131358.63      16985.958      17856.029      15818.136      17283.71     
        37   88.768542      183.57628     -131357.42      17055.534      17924.723      15889.92       17351.958    
        38   88.194491      182.38912     -131356.17      17127.124      17995.436      15963.828      17422.107    
        39   87.609579      181.17951     -131354.91      17200.762      18068.188      16039.896      17494.203    
        40   87.01411       179.94806     -131353.61      17276.465      18143.001      16118.14       17568.255    
        41   86.408382      178.69539     -131352.29      17354.246      18219.897      16198.582      17644.259    
        42   85.79269       177.42212     -131350.95      17434.12       18298.898      16281.248      17722.214    
        43   85.167326      176.12885     -131349.58      17516.107      18380.017      16366.188      17802.115    
        44   84.532569      174.81615     -131348.19      17600.252      18463.282      16453.447      17884.027    
        45   83.888692      173.48459     -131346.78      17686.568      18548.707      16543.074      17967.923    
        46   83.235956      172.13471     -131345.34      17775.075      18636.31       16635.091      18053.824    
        47   82.574617      170.76704     -131343.89      17865.773      18726.105      16729.505      18141.71     
        48   81.904918      169.38208     -131342.41      17958.681      18818.103      16826.35       18231.59     
        49   81.227093      167.98031     -131340.91      18053.795      18912.317      16925.603      18323.466    
        50   80.541371      166.56222     -131339.4       18151.134      19008.765      17027.32       18417.319    
        51   79.847972      165.12825     -131337.86      18250.708      19107.455      17131.497      18513.172    
        52   79.14712       163.67886     -131336.31      18352.498      19208.384      17238.099      18611.011    
        53   78.43904       162.21453     -131334.74      18456.506      19311.559      17347.15       18710.81     
        54   77.723967      160.73573     -131333.16      18562.715      19416.982      17458.576      18812.587    
        55   77.002154      159.243       -131331.56      18671.112      19524.649      17572.369      18916.319    
        56   76.273877      157.7369      -131329.95      18781.688      19634.55       17688.549      19021.964    
        57   75.539444      156.21807     -131328.32      18894.405      19746.667      17807.057      19129.49     
        58   74.7992        154.68722     -131326.69      19009.256      19860.984      17927.901      19238.882    
        59   74.053533      153.14516     -131325.04      19126.201      19977.468      18051.021      19350.115    
        60   73.302882      151.59278     -131323.38      19245.207      20096.099      18176.397      19463.127    
        61   72.547735      150.03111     -131321.72      19366.223      20216.832      18303.946      19577.891    
        62   71.788637      148.46127     -131320.04      19489.202      20339.635      18433.616      19694.356    
        63   71.026187      146.8845      -131318.37      19614.075      20464.441      18565.338      19812.445    
        64   70.261033      145.30214     -131316.68      19740.797      20591.198      18699.092      19932.101    
        65   69.493874      143.71563     -131315         19869.271      20719.829      18834.742      20053.243    
        66   68.725451      142.12651     -131313.31      19999.439      20850.269      18972.234      20175.813    
        67   67.956542      140.53638     -131311.62      20131.218      20982.434      19111.52       20299.701    
        68   67.187956      138.94691     -131309.93      20264.514      21116.232      19252.485      20424.825    
        69   66.420527      137.35985     -131308.25      20399.231      21251.568      19395.023      20551.103    
        70   65.655109      135.77694     -131306.57      20535.245      21388.336      19538.991      20678.408    
        71   64.89257       134.19998     -131304.89      20672.443      21526.426      19684.268      20806.636    
        72   64.133786      132.63079     -131303.23      20810.702      21665.734      19830.714      20935.659    
        73   63.379638      131.07119     -131301.57      20949.893      21806.135      19978.179      21065.366    
        74   62.631005      129.52299     -131299.92      21089.893      21947.469      20126.557      21195.653    
        75   61.888763      127.98801     -131298.28      21230.557      22089.623      20275.689      21326.358    
        76   61.153779      126.46804     -131296.66      21371.744      22232.446      20425.432      21457.356    
        77   60.426912      124.96485     -131295.05      21513.275      22375.761      20575.603      21588.462    
        78   59.709005      123.4802      -131293.46      21654.992      22519.405      20726.031      21719.541    
        79   59.000887      122.01579     -131291.89      21796.755      22663.228      20876.558      21850.479    
        80   58.303367      120.57329     -131290.34      21938.399      22807.073      21027.028      21981.095    
        81   57.617236      119.15435     -131288.81      22079.754      22950.779      21177.246      22111.238    
        82   56.943262      117.76055     -131287.31      22220.655      23094.182      21327.038      22240.746    
        83   56.282194      116.39344     -131285.83      22360.941      23237.099      21476.253      22369.471    
        84   55.634756      115.05451     -131284.37      22500.435      23379.344      21624.697      22497.265    
        85   55.001649      113.74523     -131282.95      22638.965      23520.761      21772.162      22623.971    
        86   54.383554      112.46699     -131281.55      22776.35       23661.145      21918.498      22749.409    
        87   53.781126      111.22115     -131280.19      22912.423      23800.313      22063.509      22873.446    
        88   53.194999      110.00902     -131278.86      23047.019      23938.114      22207.017      22995.924    
        89   52.62578       108.83185     -131277.57      23179.995      24074.398      22348.875      23116.713    
        90   52.074053      107.69086     -131276.3       23311.19       24208.975      22488.93       23235.665    
        91   51.540375      106.5872      -131275.08      23440.457      24341.719      22627.027      23352.626    
        92   51.025277      105.52196     -131273.9       23567.643      24472.461      22762.99       23467.479    
        93   50.529261      104.49618     -131272.75      23692.613      24601.049      22896.675      23580.114    
        94   50.052803      103.51085     -131271.64      23815.236      24727.323      23027.961      23690.425    
        95   49.596345      102.56688     -131270.58      23935.379      24851.147      23156.704      23798.284    
        96   49.160298      101.66512     -131269.55      24052.921      24972.405      23282.766      23903.592    
        97   48.745041      100.80636     -131268.57      24167.741      25090.955      23406.021      24006.246    
        98   48.350915      99.991291     -131267.64      24279.742      25206.699      23526.384      24106.143    
        99   47.978225      99.220555     -131266.74      24388.828      25319.518      23643.745      24203.22     
       100   47.627236      98.494699     -131265.9       24494.905      25429.309      23758.007      24297.399    
Loop time of 5.32293 on 6 procs for 100 steps with 16000 atoms

Performance: 1.623 ns/day, 14.786 hours/ns, 18.787 timesteps/s, 300.586 katom-step/s
99.7% CPU use with 1 MPI tasks x 6 OpenMP threads

MPI task timing breakdown:
Section |  min time  |  avg time  |  max time  |%varavg| %total
---------------------------------------------------------------
Pair    | 5.2456     | 5.2456     | 5.2456     |   0.0 | 98.55
Neigh   | 0          | 0          | 0          |   0.0 |  0.00
Comm    | 0.0087965  | 0.0087965  | 0.0087965  |   0.0 |  0.17
Output  | 0.022891   | 0.022891   | 0.022891   |   0.0 |  0.43
Modify  | 0.038109   | 0.038109   | 0.038109   |   0.0 |  0.72
Other   |            | 0.007524   |            |       |  0.14

Nlocal:          16000 ave       16000 max       16000 min
Histogram: 1 0 0 0 0 0 0 0 0 0
Nghost:          13737 ave       13737 max       13737 min
Histogram: 1 0 0 0 0 0 0 0 0 0
Neighs:              0 ave           0 max           0 min
Histogram: 1 0 0 0 0 0 0 0 0 0
FullNghs:    1.764e+06 ave   1.764e+06 max   1.764e+06 min
Histogram: 1 0 0 0 0 0 0 0 0 0

Total # of neighbors = 1764000
Ave neighs/atom = 110.25
Neighbor list builds = 0
Dangerous builds = 0

--------------------------------------------------------------------------

                               FLOPs Report

--------------------------------------------------------------------------
         alloc:     0.0000 TFlops,       0.0015 secs,       0.0000 TFLOP/s
         setup:     0.0000 TFlops,       1.2020 secs,       0.0000 TFLOP/s
   fnn->interp:     0.1513 TFlops,       0.7626 secs,       0.1984 TFLOP/s
       Kernel1:     0.3638 TFlops,       0.6112 secs,       0.5952 TFLOP/s
   nn->compute:     0.2906 TFlops,       0.2779 secs,       1.0458 TFLOP/s
          dEdP:     0.0455 TFlops,       0.3283 secs,       0.1385 TFLOP/s
             U:     0.3185 TFlops,       0.8750 secs,       0.3640 TFLOP/s
             V:     0.3185 TFlops,       0.4426 secs,       0.7197 TFLOP/s
            F1:     0.0163 TFlops,       0.3050 secs,       0.0534 TFLOP/s
            F2:     0.0053 TFlops,       0.2146 secs,       0.0249 TFLOP/s
        forces:     0.0015 TFlops,       0.1985 secs,       0.0075 TFLOP/s
--------------------------------------------------------------------------
       Overall:     1.5113 TFlops,       5.2191 secs,       0.2896 TFLOP/s
--------------------------------------------------------------------------

Total wall time: 0:00:15
