(written by ASE)

4 atoms
2 atom types

0.0                    3.52  xlo xhi
0.0                    3.52  ylo yhi
0.0                    3.52  zlo zhi

Atoms # atomic

     1   2    0.047376384465221744    0.023023041874587261   -0.014084231578048563
     2   2    0.016276801307578938      1.7460974692156261      1.7460281073928923
     3   2       1.767258868146981   -0.057398407339733934      1.7082524650246089
     4   2      1.7431313741227707      1.7296150663899672   0.0094274199778582157
