(written by ASE)

4 atoms
3 atom types

0.0      3.6099999999999999  xlo xhi
0.0      3.6099999999999999  ylo yhi
0.0      3.6099999999999999  zlo zhi

Atoms # atomic

     1   2                       0                       0                       0
     2   2                       0      1.8049999999999999      1.8049999999999999
     3   2      1.8049999999999999                       0      1.8049999999999999
     4   2      1.8049999999999999      1.8049999999999999                       0
