LAMMPS (2 Aug 2023)
  using 40 OpenMP thread(s) per MPI task
units               metal
boundary            p p p
atom_style          atomic

read_data           ../Mo8_Ni8_id3210.data
Reading data file ...
  triclinic box = (0 0 0) to (6.2602122 6.1527947 5.5606784) with tilt (0.28813996 0.0076571038 -0.086881948)
  1 by 1 by 1 MPI processor grid
  reading atoms ...
  16 atoms
  read_data CPU = 0.003 seconds
replicate           10 10 10
Replication is creating a 10x10x10 = 1000 times larger system...
  triclinic box = (0 0 0) to (62.602122 61.527947 55.606784) with tilt (2.8813996 0.076571038 -0.86881948)
  1 by 1 by 1 MPI processor grid
  16000 atoms
  replicate CPU = 0.004 seconds

pair_style          tensormd
pair_coeff          * * MoNi_squareplus_500k.npz Mo Ni interp 0.0001 cmax default
Read potential file: MoNi_squareplus_500k.npz
Use 1 GPU(s) per node
Use interpolation: dr = 0.0001

thermo              1
thermo_style        custom step temp ke pe press pxx pyy pzz
timestep            0.001

neighbor            1.0 bin
neigh_modify        every 1 delay 0 check yes

# min_style           cg
# minimize            1e-6 1e-6 1000 10000
# reset_timestep      0

velocity            all create 100.0 56789
fix                 1 all nvt temp 100.0 100.0 $(100*dt)
fix                 1 all nvt temp 100.0 100.0 0.10000000000000000555

run                 100
Neighbor list info ...
  update: every = 1 steps, delay = 0 steps, check = yes
  max neighbors/atom: 2000, page size: 100000
  master list distance cutoff = 7
  ghost atom cutoff = 7
  binsize = 3.5, bins = 19 18 16
  1 neighbor lists, perpetual/occasional/extra = 1 0 0
  (1) pair tensormd, perpetual
      attributes: full, newton on
      pair build: full/bin/atomonly
      stencil: full/bin/3d
      bin: standard
Per MPI rank memory allocation (min/avg/max) = 66.36 | 66.36 | 66.36 Mbytes
   Step          Temp          KinEng         PotEng         Press           Pxx            Pyy            Pzz      
         0   100            206.80331     -131258.81      7444.9742      5942.6163      6936.1815      9456.1248    
         1   99.992343      206.78747     -131258.79      7445.1937      5943.019       6936.4731      9456.0891    
         2   99.969453      206.74013     -131258.74      7448.099       5946.1358      6939.422       9458.7393    
         3   99.93133       206.66129     -131258.66      7453.6025      5951.9538      6944.8956      9463.958     
         4   99.877977      206.55096     -131258.55      7461.7503      5960.4778      6952.9658      9471.8073    
         5   99.809408      206.40916     -131258.41      7472.5799      5971.7123      6963.6905      9482.3369    
         6   99.72564       206.23592     -131258.24      7486.1011      5985.6577      6977.0858      9495.5597    
         7   99.626696      206.0313      -131258.03      7502.306       6002.3132      6993.1382      9511.4667    
         8   99.512604      205.79535     -131257.8       7521.1976      6021.6794      7011.8501      9530.0633    
         9   99.383398      205.52815     -131257.53      7542.7626      6043.7531      7033.2042      9551.3303    
        10   99.239116      205.22977     -131257.23      7567.0076      6068.5352      7057.2121      9575.2756    
        11   99.0798        204.9003      -131256.9       7593.9331      6096.0263      7083.871       9601.902     
        12   98.905498      204.53984     -131256.54      7623.5277      6126.2222      7113.1786      9631.1824    
        13   98.716264      204.1485      -131256.14      7655.7879      6159.1184      7145.138       9663.1074    
        14   98.512154      203.72639     -131255.72      7690.7073      6194.712       7179.7423      9697.6676    
        15   98.293232      203.27365     -131255.26      7728.2652      6232.9893      7216.9696      9734.8367    
        16   98.059566      202.79043     -131254.78      7768.4682      6273.9504      7256.8339      9774.6204    
        17   97.811233      202.27686     -131254.26      7811.301       6317.5831      7299.3233      9816.9966    
        18   97.54831       201.73313     -131253.71      7856.7491      6363.8737      7344.4264      9861.9471    
        19   97.270885      201.15941     -131253.13      7904.8142      6412.8213      7392.1505      9909.4707    
        20   96.979049      200.55588     -131252.52      7955.4877      6464.4168      7442.4921      9959.5542    
        21   96.672903      199.92276     -131251.87      8008.7726      6518.66        7495.4555      10012.202    
        22   96.352551      199.26026     -131251.2       8064.6622      6575.5443      7551.0375      10067.405    
        23   96.018106      198.56862     -131250.5       8123.1624      6635.0691      7609.2489      10125.169    
        24   95.669692      197.84808     -131249.77      8184.2615      6697.2281      7670.077       10185.479    
        25   95.307435      197.09893     -131249         8247.9473      6762.012       7733.5116      10248.318    
        26   94.931475      196.32143     -131248.21      8314.2207      6829.418       7799.5584      10313.686    
        27   94.541957      195.51589     -131247.38      8383.0733      6899.4315      7868.2208      10381.568    
        28   94.139036      194.68264     -131246.53      8454.5059      6972.055       7939.5002      10451.963    
        29   93.722876      193.82201     -131245.65      8528.504       7047.2772      8013.3861      10524.849    
        30   93.293648      192.93435     -131244.73      8605.076       7125.0985      8089.8917      10600.238    
        31   92.851532      192.02004     -131243.79      8684.217       7205.5224      8169.0104      10678.118    
        32   92.396717      191.07947     -131242.82      8765.9092      7288.531       8250.7312      10758.465    
        33   91.929404      190.11305     -131241.82      8850.135       7374.1154      8335.0462      10841.243    
        34   91.449799      189.12121     -131240.79      8936.9028      7462.2754      8421.9611      10926.472    
        35   90.958117      188.10439     -131239.74      9026.2272      7553.0109      8511.4921      11014.179    
        36   90.45458       187.06306     -131238.65      9118.1011      7646.3138      8603.6375      11104.352    
        37   89.939419      185.99769     -131237.54      9212.5161      7742.1857      8698.3865      11196.976    
        38   89.412869      184.90877     -131236.4       9309.4687      7840.6275      8795.7351      11292.044    
        39   88.875175      183.7968      -131235.24      9408.9476      7941.6265      8895.6763      11389.54     
        40   88.326584      182.6623      -131234.05      9510.9584      8045.1769      8998.226       11489.472    
        41   87.767348      181.50578     -131232.83      9615.4848      8151.2685      9103.3719      11591.814    
        42   87.197723      180.32777     -131231.59      9722.5228      8259.8969      9211.1118      11696.56     
        43   86.617964      179.12881     -131230.32      9832.0669      8371.0594      9321.4401      11803.701    
        44   86.02833       177.90943     -131229.03      9944.1041      8484.7407      9434.3555      11913.216    
        45   85.429077      176.67016     -131227.71      10058.63       8600.9393      9549.8571      12025.094    
        46   84.820457      175.41151     -131226.38      10175.635      8719.6445      9667.9393      12139.32     
        47   84.202721      174.13401     -131225.02      10295.103      8840.8409      9788.5886      12255.879    
        48   83.576113      172.83817     -131223.63      10417.024      8964.514       9911.794       12374.764    
        49   82.940873      171.52447     -131222.23      10541.397      9090.6618      10037.554      12495.975    
        50   82.297234      170.1934      -131220.81      10668.194      9219.2562      10165.843      12619.484    
        51   81.645426      168.84544     -131219.36      10797.39       9350.2666      10296.635      12745.267    
        52   80.985674      167.48105     -131217.9       10928.97       9483.6862      10429.909      12873.314    
        53   80.318203      166.1007      -131216.42      11062.913      9619.4934      10565.642      13003.602    
        54   79.643242      164.70486     -131214.92      11199.184      9757.6529      10703.804      13136.096    
        55   78.961025      163.29401     -131213.41      11337.758      9898.1394      10844.355      13270.779    
        56   78.271799      161.86867     -131211.88      11478.58       10040.911      10987.24       13407.589    
        57   77.575829      160.42938     -131210.33      11621.612      10185.925      11132.405      13546.506    
        58   76.873404      158.97674     -131208.78      11766.818      10333.14       11279.828      13687.487    
        59   76.164843      157.51141     -131207.21      11914.159      10482.518      11429.462      13830.496    
        60   75.450498      156.03413     -131205.62      12063.564      10634          11581.233      13975.457    
        61   74.730767      154.5457      -131204.03      12214.986      10787.537      11735.092      14122.33     
        62   74.006085      153.04703     -131202.43      12368.366      10943.053      11891.002      14271.043    
        63   73.276938      151.53913     -131200.82      12523.632      11100.489      12048.877      14421.53     
        64   72.543855      150.02309     -131199.2       12680.719      11259.783      12208.631      14573.742    
        65   71.807412      148.5001      -131197.57      12839.551      11420.859      12370.183      14727.611    
        66   71.068226      146.97144     -131195.95      13000.045      11583.632      12533.448      14883.054    
        67   70.326953      145.43846     -131194.31      13162.108      11748.007      12698.337      15039.979    
        68   69.584281      143.90259     -131192.68      13325.655      11913.891      12864.769      15198.305    
        69   68.840925      142.36531     -131191.05      13490.583      12081.184      13032.628      15357.936    
        70   68.097624      140.82814     -131189.41      13656.784      12249.781      13201.791      15518.781    
        71   67.355132      139.29264     -131187.78      13824.141      12419.571      13372.138      15680.713    
        72   66.614213      137.76039     -131186.15      13992.535      12590.432      13543.549      15843.625    
        73   65.875636      136.23299     -131184.52      14161.85       12762.244      13715.905      16007.401    
        74   65.140171      134.71203     -131182.9       14331.96       12934.878      13889.076      16171.925    
        75   64.408582      133.19908     -131181.29      14502.732      13108.196      14062.93       16337.069    
        76   63.681627      131.69571     -131179.69      14674.025      13282.058      14237.33       16502.687    
        77   62.96005       130.20347     -131178.09      14845.693      13456.319      14412.116      16668.644    
        78   62.244584      128.72386     -131176.51      15017.585      13630.828      14587.127      16834.8      
        79   61.535943      127.25836     -131174.94      15189.561      13805.444      14762.213      17001.025    
        80   60.834822      125.80842     -131173.39      15361.461      13980.002      14937.218      17167.162    
        81   60.141895      124.37543     -131171.84      15533.121      14154.338      15111.972      17333.054    
        82   59.457817      122.96073     -131170.32      15704.374      14328.276      15286.312      17498.535    
        83   58.783217      121.56564     -131168.82      15875.064      14501.667      15460.063      17663.462    
        84   58.118703      120.1914      -131167.33      16045.019      14674.341      15633.046      17827.669    
        85   57.464857      118.83922     -131165.86      16214.082      14846.132      15805.112      17991.001    
        86   56.822241      117.51027     -131164.42      16382.076      15016.871      15976.069      18153.289    
        87   56.191391      116.20565     -131163         16548.83       15186.373      16145.743      18314.374    
        88   55.572822      114.92643     -131161.61      16714.182      15354.481      16313.972      18474.092    
        89   54.967026      113.67363     -131160.23      16877.952      15521.019      16480.561      18632.274    
        90   54.374478      112.44822     -131158.89      17039.992      15685.842      16645.358      18788.777    
        91   53.795629      111.25114     -131157.57      17200.144      15848.777      16808.198      18943.458    
        92   53.230911      110.08328     -131156.29      17358.24       16009.65       16968.921      19096.148    
        93   52.680737      108.94551     -131155.03      17514.122      16168.302      17127.371      19246.693    
        94   52.145502      107.83862     -131153.8       17667.643      16324.585      17283.393      19394.951    
        95   51.62558       106.76341     -131152.6       17818.663      16478.354      17436.835      19540.799    
        96   51.121323      105.72059     -131151.44      17967.028      16629.449      17587.543      19684.091    
        97   50.633064      104.71085     -131150.31      18112.6        16777.742      17735.376      19824.683    
        98   50.161115      103.73484     -131149.21      18255.261      16923.11       17880.208      19962.464    
        99   49.705763      102.79316     -131148.15      18394.886      17065.418      18021.925      20097.315    
       100   49.26727       101.88634     -131147.12      18531.359      17204.553      18160.4        20229.125    
Loop time of 1.4985 on 40 procs for 100 steps with 16000 atoms

Performance: 5.766 ns/day, 4.163 hours/ns, 66.733 timesteps/s, 1.068 Matom-step/s
2574.1% CPU use with 1 MPI tasks x 40 OpenMP threads

MPI task timing breakdown:
Section |  min time  |  avg time  |  max time  |%varavg| %total
---------------------------------------------------------------
Pair    | 1.4504     | 1.4504     | 1.4504     |   0.0 | 96.79
Neigh   | 0          | 0          | 0          |   0.0 |  0.00
Comm    | 0.0068174  | 0.0068174  | 0.0068174  |   0.0 |  0.45
Output  | 0.011652   | 0.011652   | 0.011652   |   0.0 |  0.78
Modify  | 0.022729   | 0.022729   | 0.022729   |   0.0 |  1.52
Other   |            | 0.006939   |            |       |  0.46

Nlocal:          16000 ave       16000 max       16000 min
Histogram: 1 0 0 0 0 0 0 0 0 0
Nghost:          13737 ave       13737 max       13737 min
Histogram: 1 0 0 0 0 0 0 0 0 0
Neighs:              0 ave           0 max           0 min
Histogram: 1 0 0 0 0 0 0 0 0 0
FullNghs:    1.764e+06 ave   1.764e+06 max   1.764e+06 min
Histogram: 1 0 0 0 0 0 0 0 0 0

Total # of neighbors = 1764000
Ave neighs/atom = 110.25
Neighbor list builds = 0
Dangerous builds = 0

--------------------------------------------------------------------------

                               FLOPs Report

--------------------------------------------------------------------------
         alloc:     0.0000 TFlops,       0.0019 secs,       0.0000 TFLOP/s
         setup:     0.0000 TFlops,       0.2129 secs,       0.0000 TFLOP/s
   fnn->interp:     0.4397 TFlops,       0.4387 secs,       1.0023 TFLOP/s
       Kernel1:     0.9710 TFlops,       0.2530 secs,       3.8371 TFLOP/s
   nn->compute:     0.2906 TFlops,       0.0668 secs,       4.3489 TFLOP/s
          dEdP:     0.0455 TFlops,       0.0594 secs,       0.7651 TFLOP/s
             V:     0.9257 TFlops,       0.2289 secs,       4.0444 TFLOP/s
            F2:     0.0155 TFlops,       0.0207 secs,       0.7521 TFLOP/s
       Kernel4:     0.9731 TFlops,       0.0947 secs,      10.2806 TFLOP/s
        forces:     0.0043 TFlops,       0.0371 secs,       0.1170 TFLOP/s
--------------------------------------------------------------------------
       Overall:     3.6654 TFlops,       1.4141 secs,       2.5921 TFLOP/s
--------------------------------------------------------------------------

Total wall time: 0:00:02
