LAMMPS (2 Aug 2023)
  using 40 OpenMP thread(s) per MPI task
units             metal
boundary          p p p
atom_style        atomic

read_data         AlMgSi.data
Reading data file ...
  orthogonal box = (0 0 0) to (12.15 12.15 12.15)
  1 by 1 by 1 MPI processor grid
  reading atoms ...
  108 atoms
  read_data CPU = 0.011 seconds
replicate           10 10 3
Replication is creating a 10x10x3 = 300 times larger system...
  orthogonal box = (0 0 0) to (121.5 121.5 36.45)
  1 by 1 by 1 MPI processor grid
  32400 atoms
  replicate CPU = 0.008 seconds

pair_style        tensormd
pair_coeff        * * AlMgSi.24aug13.npz Al Mg Si interp 0.0001
Read potential file: AlMgSi.24aug13.npz
Use 2 GPU(s) per node
Use interpolation: dr = 0.0001

thermo              1
thermo_style        custom step temp ke pe press pxx pyy pzz
timestep            0.001

neighbor            1.0 bin
neigh_modify        every 1 delay 0 check yes

velocity            all create 100.0 56789
fix                 1 all nvt temp 100.0 100.0 $(100*dt)
fix                 1 all nvt temp 100.0 100.0 0.10000000000000000555

run                 50
Neighbor list info ...
  update: every = 1 steps, delay = 0 steps, check = yes
  max neighbors/atom: 2000, page size: 100000
  master list distance cutoff = 7
  ghost atom cutoff = 7
  binsize = 3.5, bins = 35 35 11
  1 neighbor lists, perpetual/occasional/extra = 1 0 0
  (1) pair tensormd, perpetual
      attributes: full, newton on
      pair build: full/bin/atomonly
      stencil: full/bin/3d
      bin: standard
Per MPI rank memory allocation (min/avg/max) = 114.7 | 114.7 | 114.7 Mbytes
   Step          Temp          KinEng         PotEng         Press           Pxx            Pyy            Pzz      
         0   100            418.78994     -16177292       20962.087      19251.728      24172.638      19461.895    
         1   100.16015      419.46064     -16177293       20965.692      19256.91       24177.48       19462.684    
         2   100.7365       421.87433     -16177295       20976.018      19273.33       24189.456      19465.269    
         3   101.72396      426.00973     -16177299       20993.197      19301.07       24208.718      19469.803    
         4   103.11374      431.82999     -16177305       21017.454      19340.279      24235.533      19476.55     
         5   104.89343      439.28312     -16177312       21049.11       19391.166      24270.28       19485.883    
         6   107.04716      448.30272     -16177321       21088.577      19454.006      24313.446      19498.28     
         7   109.55584      458.80883     -16177332       21136.357      19529.134      24365.618      19514.319    
         8   112.39738      470.70894     -16177344       21193.035      19616.952      24427.479      19534.675    
         9   115.54701      483.89924     -16177357       21259.276      19717.922      24499.797      19560.108    
        10   118.97753      498.26593     -16177372       21335.814      19832.566      24583.417      19591.459    
        11   122.65974      513.68666     -16177387       21423.449      19961.463      24679.248      19629.636    
        12   126.56277      530.03216     -16177404       21523.032      20105.244      24788.248      19675.604    
        13   130.65449      547.16789     -16177421       21635.457      20264.583      24911.414      19730.375    
        14   134.90195      564.95579     -16177439       21761.646      20440.193      25049.759      19794.986    
        15   139.27177      583.25616     -16177457       21902.534      20632.811      25204.3        19870.492    
        16   143.73066      601.92955     -16177476       22059.056      20843.188      25376.038      19957.942    
        17   148.24588      620.83884     -16177496       22232.129      21072.08       25565.937      20058.369    
        18   152.78574      639.85132     -16177515       22422.634      21320.23       25774.909      20172.764    
        19   157.32013      658.84088     -16177534       22631.406      21588.356      26003.795      20302.067    
        20   161.82102      677.69016     -16177554       22859.21       21877.137      26253.347      20447.145    
        21   166.26293      696.29241     -16177573       23106.734      22187.205      26524.216      20608.781    
        22   170.62323      714.55293     -16177592       23374.571      22519.123      26816.935      20787.655    
        23   174.88231      732.38954     -16177610       23663.21       22873.378      27131.913      20984.338    
        24   179.02341      749.73203     -16177629       23973.004      23250.339      27469.417      21199.256    
        25   183.03223      766.52056     -16177646       24304.199      23650.29       27829.56       21432.747    
        26   186.89642      782.70341     -16177663       24656.851      24073.31       28212.283      21684.959    
        27   190.60508      798.2349      -16177679       25030.885      24519.351      28617.414      21955.888    
        28   194.14839      813.07395     -16177695       25426.034      24988.125      29044.605      22245.372    
        29   197.51759      827.18381     -16177710       25841.772      25478.969      29493.266      22553.08     
        30   200.70507      840.53265     -16177724       26277.523      25991.143      29962.792      22878.633    
        31   203.70468      853.09473     -16177738       26732.279      26523.146      30452.277      23221.413    
        32   206.51191      864.85113     -16177751       27205.093      27073.729      30960.775      23580.775    
        33   209.12396      875.7901      -16177762       27694.893      27641.535      31487.273      23955.872    
        34   211.53977      885.9073      -16177774       28200.313      28224.629      32030.511      24345.799    
        35   213.76005      895.20558     -16177784       28720.011      28821.232      32589.221      24749.579    
        36   215.78698      903.69416     -16177794       29252.708      29429.846      33162.026      25166.252    
        37   217.62409      911.38779     -16177803       29796.892      30048.479      33747.479      25594.718    
        38   219.27594      918.30557     -16177811       30351.138      30675.446      34344.145      26033.823    
        39   220.74765      924.46898     -16177818       30913.885      31309.127      34950.373      26482.156    
        40   222.04457      929.90035     -16177825       31483.525      31947.592      35564.622      26938.361    
        41   223.17209      934.62225     -16177831       32058.51       32589.182      36185.327      27401.021    
        42   224.13536      938.65636     -16177837       32637.074      33231.984      36810.548      27868.69     
        43   224.93915      942.02252     -16177842       33217.357      33873.983      37438.289      28339.798    
        44   225.58782      944.7391      -16177846       33797.522      34513.06       38066.829      28812.675    
        45   226.08549      946.8233      -16177850       34375.751      35147.37       38694.222      29285.659    
        46   226.43605      948.29139     -16177853       34949.966      35774.631      39318.405      29756.863    
        47   226.64334      949.1595      -16177855       35517.871      36392.181      39937.157      30224.273    
        48   226.71133      949.44425     -16177857       36077.117      36997.536      40548.159      30685.655    
        49   226.64422      949.16322     -16177859       36625.184      37588.198      41148.789      31138.564    
        50   226.44671      948.33606     -16177859       37159.027      38160.526      41736.357      31580.197    
Loop time of 1.9723 on 40 procs for 50 steps with 32400 atoms

Performance: 2.190 ns/day, 10.957 hours/ns, 25.351 timesteps/s, 821.375 katom-step/s
1431.6% CPU use with 1 MPI tasks x 40 OpenMP threads

MPI task timing breakdown:
Section |  min time  |  avg time  |  max time  |%varavg| %total
---------------------------------------------------------------
Pair    | 1.8341     | 1.8341     | 1.8341     |   0.0 | 92.99
Neigh   | 0.083951   | 0.083951   | 0.083951   |   0.0 |  4.26
Comm    | 0.0082453  | 0.0082453  | 0.0082453  |   0.0 |  0.42
Output  | 0.011266   | 0.011266   | 0.011266   |   0.0 |  0.57
Modify  | 0.026212   | 0.026212   | 0.026212   |   0.0 |  1.33
Other   |            | 0.00856    |            |       |  0.43

Nlocal:          32400 ave       32400 max       32400 min
Histogram: 1 0 0 0 0 0 0 0 0 0
Nghost:          23712 ave       23712 max       23712 min
Histogram: 1 0 0 0 0 0 0 0 0 0
Neighs:              0 ave           0 max           0 min
Histogram: 1 0 0 0 0 0 0 0 0 0
FullNghs:  2.65434e+06 ave 2.65434e+06 max 2.65434e+06 min
Histogram: 1 0 0 0 0 0 0 0 0 0

Total # of neighbors = 2654338
Ave neighs/atom = 81.924012
Neighbor list builds = 1
Dangerous builds = 0

--------------------------------------------------------------------------

                               FLOPs Report

--------------------------------------------------------------------------
         alloc:     0.0000 TFlops,       0.0026 secs,       0.0000 TFLOP/s
         setup:     0.0000 TFlops,       0.3207 secs,       0.0000 TFLOP/s
   fnn->interp:     0.2364 TFlops,       0.3203 secs,       0.7381 TFLOP/s
       Kernel1:     0.5664 TFlops,       0.3268 secs,       1.7332 TFLOP/s
   nn->compute:     0.3734 TFlops,       0.0647 secs,       5.7703 TFLOP/s
          dEdP:     0.0691 TFlops,       0.2237 secs,       0.3086 TFLOP/s
             U:     0.4977 TFlops,       0.2134 secs,       2.3318 TFLOP/s
             V:     0.4977 TFlops,       0.1582 secs,       3.1461 TFLOP/s
            F1:     0.0255 TFlops,       0.0862 secs,       0.2956 TFLOP/s
            F2:     0.0084 TFlops,       0.0662 secs,       0.1263 TFLOP/s
        forces:     0.0023 TFlops,       0.0302 secs,       0.0773 TFLOP/s
--------------------------------------------------------------------------
       Overall:     2.2767 TFlops,       1.8130 secs,       1.2558 TFLOP/s
--------------------------------------------------------------------------

Total wall time: 0:00:02
