(written by ASE)

4 atoms
3 atom types

0.0      4.0499999999999998  xlo xhi
0.0      4.0499999999999998  ylo yhi
0.0      4.0499999999999998  zlo zhi

Atoms # atomic

     1   1   0.0049671415301123269  -0.0013826430117118466   0.0064768853810069247
     2   1    0.015230298564080254      2.0226584662527665      2.0226586304305081
     3   1      2.0407921281550738    0.007674347291529088      2.0203052561406505
     4   1      2.0304256004358594      2.0203658230718755  -0.0046572975357025686
