(written by ASE)

2 atoms
1 atom types

0.0      2.1000000000000001  xlo xhi
0.0      2.1000000000000001  ylo yhi
0.0      2.1000000000000001  zlo zhi

Atoms # atomic

     1   1    0.014901424590336979  -0.0041479290351355393    0.019430656143020773
     2   1      1.0956908956922409      1.0429753987582999      1.0429758912915246
