(written by ASE)

2 atoms
3 atom types

0.0                    3.21  xlo xhi
0.0      2.7799415461480477  ylo yhi
0.0                    5.21  zlo zhi
                 -1.605                       0                       0  xy xz yz

Atoms # atomic

     1   3  -0.0054438272452518267   0.0011092258970986609   -0.011509935774223028
     2   3    0.003756980183456631      1.8472879771995103       2.602083062502067
