(written by ASE)

4 atoms
3 atom types

0.0      4.0499999999999998  xlo xhi
0.0      4.0499999999999998  ylo yhi
0.0      4.0499999999999998  zlo zhi

Atoms # atomic

     1   1                       0                       0                       0
     2   1                       0      2.0249999999999999      2.0249999999999999
     3   1      2.0249999999999999                       0      2.0249999999999999
     4   1      2.0249999999999999      2.0249999999999999                       0
