(written by ASE)

16 atoms
1 atom types

0.0                     4.5  xlo xhi
0.0                     4.5  ylo yhi
0.0                     4.5  zlo zhi

Atoms # atomic

     1   1    0.053263460165180722    0.028611158975936218   -0.061816011684450729
     2   1      1.1246646460028591      1.1498534389556192      1.0961965775712441
     3   1    0.010620463427684782   0.0043419410285987772      2.2501716572373613
     4   1      1.1180159915762824       1.142321047598144      3.4231214949524884
     5   1   -0.038602626820670533      2.2911309631193082   0.0091452052049863872
     6   1      1.1428055045132139      3.3295359115267584      1.1304054751379453
     7   1    0.059381480073463291       2.206807804568589      2.1708908687736836
     8   1      1.0552651081640436      3.3856428065600221      3.4703986932284439
     9   1      2.2949476501363768    0.066904888532313106   0.0039659686334097451
    10   1      3.4309198550837432      1.1141500804813689      1.1495281673943856
    11   1      2.2393073124530574   -0.021972360564219157      2.2553083318303981
    12   1      3.3559543194029064       1.177338923234539      3.3828005311693237
    13   1      2.2660083995300941      2.2364947065165786    0.050258890550206221
    14   1      3.3457212199199517      3.4014092620490524      1.1109651243424052
    15   1      2.2124226656094979      2.2304265113246138       2.217816354309202
    16   1      3.3664920944515795      3.3614343901574628      3.3874867974525289
