ITEM: TIMESTEP
3
ITEM: NUMBER OF ATOMS
2
ITEM: BOX BOUNDS xy xz yz pp pp pp
1.1155864420256769e-04 3.1718319582426244e+00 3.1716886827115899e-05
1.1155864420256066e-04 3.1718002413557973e+00 0.0000000000000000e+00
1.1155864420256382e-04 3.1718002413557973e+00 0.0000000000000000e+00
ITEM: ATOMS id type x y z
1 1 3.1718 0.000111564 3.1718
2 1 1.58597 1.58596 1.58596
