(written by ASE)

4 atoms
3 atom types

0.0      3.6099999999999999  xlo xhi
0.0      3.6099999999999999  ylo yhi
0.0      3.6099999999999999  zlo zhi

Atoms # atomic

     1   2   0.0024196227156603411    -0.01913280244657798   -0.017249178325130329
     2   2  -0.0056228752924097269      1.7948716887966556      1.8081424733259526
     3   2      1.7959197592447878   -0.014123037013352916      1.8196564876892154
     4   2      1.8027422369951345      1.8056752820468791   -0.014247481862134568
