(written by ASE)

2 atoms
3 atom types

0.0                    3.21  xlo xhi
0.0      2.7799415461480477  ylo yhi
0.0                    5.21  zlo zhi
                 -1.605                       0                       0  xy xz yz

Atoms # atomic

     1   3                       0                       0                       0
     2   3 -8.8632804799241664e-17      1.8532943640986983                   2.605
